3
Lattice="2.7244462138242254 0.0 0.0 0.3185009084331083 3.3409302658866205 0.0 -0.0897675692440214 -0.4253714390260561 4.400825979995155" Properties=species:S:1:pos:R:3:REF_forces:R:3 head=omat_pbe REF_energy=-14.115504841470905 REF_stress="0.00612283633122733 0.001192740536234599 -0.0015633338712966157 0.001192740536234599 0.0590239025717154 0.002913693180489623 -0.0015633338712966157 0.002913693180489623 -0.01612945312716985" pretrained=T config_weight=1.0 pbc="T T T"
Li       0.90360500       0.22303200       1.24466000       0.05764905      -0.08790330       0.03898466
O        2.53918000       1.89012000       0.65971000      -0.08140702       0.10655027      -0.48618821
O        2.45147000       1.87740000       2.02097000       0.02375797      -0.01864697       0.44720356
2
Lattice="2.9007948529857646 0.0 0.0 -1.3211131138148822 2.679921403874073 0.0 -0.3141637348530205 -1.5706472672411593 5.494353153352722" Properties=species:S:1:pos:R:3:REF_forces:R:3 head=omat_pbe REF_energy=-3.7282250480096666 REF_stress="-0.005280609848594854 0.00191335154686104 0.001192513466872526 0.00191335154686104 0.00030890215015756586 0.0005430437517242267 0.001192513466872526 0.0005430437517242267 0.008847274143742803" pretrained=T config_weight=1.0 pbc="T T T"
Li      -0.05532840      -0.03529520       1.31950000       0.00164079       0.00923401      -0.14069057
Li       1.43485000       1.07554000       3.78882000      -0.00164079      -0.00923401       0.14069057
8
Lattice="2.7114 -4.696282 0.0 2.7114 4.696282 0.0 0.0 0.0 4.019635" Properties=species:S:1:pos:R:3:REF_forces:R:3 head=omat_pbe REF_energy=-45.05683468042905 REF_stress="-0.0013223331038245958 7.139969082229295e-17 -3.647528663036574e-08 7.139969082229295e-17 -0.0013213033097081686 2.0604727011558597e-17 -3.647528663036574e-08 2.0604727011558597e-17 0.0034663278588542884" pretrained=T config_weight=1.0 pbc="T T T"
Al       2.71140000       1.56543046       0.00000000       0.00000000      -0.00005894      -0.00000000
Al       2.71140000      -1.56543046       0.00000000       0.00000000       0.00005894      -0.00000000
O        1.65276098      -2.86266566       3.14071367      -0.02590186       0.04484316      -0.14448043
O        2.11727803      -0.00000000       3.14071367       0.05179827      -0.00000000      -0.14445892
O        1.65276098       2.86266566       3.14071367      -0.02590186      -0.04484316      -0.14448043
O        1.05863902      -1.83361634       0.87892133       0.02590186      -0.04484316       0.14448043
O        3.30552197       0.00000000       0.87892133      -0.05179827      -0.00000000       0.14445892
O        1.05863902       1.83361634       0.87892133       0.02590186       0.04484316       0.14448043
8
Lattice="12.228048710871338 0.0 0.0 -0.5384118509151276 4.3195478628119215 0.0 -1.6862603885099714 0.6449442857568031 2.025904635399547" Properties=species:S:1:pos:R:3:REF_forces:R:3 head=omat_pbe REF_energy=-47.24189355594004 REF_stress="-0.040031449799579906 -0.004525924440005045 0.02589978807776471 -0.004525924440005045 -0.05053660030522375 -0.016280734324547214 0.02589978807776471 -0.016280734324547214 -0.05155827614504448" pretrained=T config_weight=1.0 pbc="T T T"
Al       0.55073000       1.97387000       1.31084000      -0.05169812       0.53964511       1.20282069
Al      10.46699910       3.91991571       0.49623536      -1.81677091      -0.44254909      -0.67006394
O       -1.39769000       2.43680000       1.56023000       0.33164836       0.47648389      -1.32014255
O       -0.66627285       4.68471986       1.61035000       0.42055999      -0.28581349       0.94623907
O        2.31377639       2.01938571       0.99826536      -0.43812368      -0.21384830      -0.65186166
O        5.39144000       3.55443000       1.72689000      -0.58785680      -0.43519281      -0.20105926
O        4.48640039       2.91628571       1.21308536       0.84096485       0.35757047       0.08458486
O        8.78622910       4.40124571       0.79472536       1.30127632       0.00370421       0.60948280
2
Lattice="2.538121 0.0 0.0 0.0 2.538121 0.0 0.0 0.0 2.538121" Properties=species:S:1:pos:R:3:REF_forces:R:3 head=omat_pbe REF_energy=-8.889371005962168 REF_stress="0.028281552856498283 5.865586172015085e-18 1.2950838190712184e-17 5.865586172015085e-18 0.028281552856498395 1.6737493286785237e-17 1.2950838190712184e-17 1.6737493286785237e-17 0.028281552856498277" pretrained=T config_weight=1.0 pbc="T T T"
Li       1.26906050       1.26906050       1.26906050       0.00000000      -0.00000000       0.00000000
O        0.00000000       0.00000000       0.00000000      -0.00000000       0.00000000       0.00000000
3
Lattice="2.8415193680659354 0.0 0.0 -1.9028135627925247 5.829981104673662 0.0 0.4351939952039099 2.7194176320171772 2.6868294236320276" Properties=species:S:1:pos:R:3:REF_forces:R:3 head=omat_pbe REF_energy=-15.476143025954581 REF_stress="0.018804915316776805 0.009797949348828964 -0.0032652965065900204 0.009797949348828964 -0.007429973349932963 0.012653803041894191 -0.0032652965065900204 0.012653803041894191 -0.023496391761951226" pretrained=T config_weight=1.0 pbc="T T T"
Al       0.76199500       3.04045000       1.83754000       0.10795784      -0.38409913       0.99768479
Al      -0.11439356       6.08012710       1.57401000      -0.21809056       0.07972342       0.76151207
O        0.83873600       3.01748237       0.08773058       0.11013272       0.30437571      -1.75919686
8
Lattice="12.818218668228106 0.0 0.0 -0.4704836478220944 4.967375171173224 0.0 -1.7811501869550774 0.7417396504645909 2.0459551740531023" Properties=species:S:1:pos:R:3:REF_forces:R:3 head=omat_pbe REF_energy=-47.833610605499466 REF_stress="0.0013805248299813653 0.007136579496332868 0.003663038897098423 0.007136579496332868 -0.020978669493884786 -0.0017794875866204165 0.003663038897098423 -0.0017794875866204165 -0.007745323392642499" pretrained=T config_weight=1.0 pbc="T T T"
Al       0.00576752       2.12157000       0.97107200       1.36140006      -0.78382005       1.36338123
Al      10.84866886       4.49731035       0.40538483      -1.64734009      -0.07051304       0.36934109
O       11.21623867       2.89132000       1.17886000      -0.45461586       0.78775101      -0.04406976
O       -1.02404465       5.47861917       1.59856000      -0.15733079      -0.02862444      -0.87647934
O        1.91592819       1.99917035       0.79400483      -0.58526737       0.07187408      -0.55617530
O        8.27583019       1.91894035       0.35110483       0.84407900       0.30434969       0.46778243
O        5.55509000       2.17538000       1.83495000      -1.10977260      -0.32111588      -0.71012147
O        9.06563521       4.91545952       0.73958483       1.74884764       0.04009863      -0.01365889
3
Lattice="2.910911212830615 0.0 0.0 0.3743243363524964 6.0599638197366055 0.0 0.1019161095978057 2.522816850389557 2.529716231787649" Properties=species:S:1:pos:R:3:REF_forces:R:3 head=omat_pbe REF_energy=-15.837486030725124 REF_stress="0.025929552580897297 0.010130279416432726 -0.009236963201364874 0.010130279416432726 -0.04360694356577292 0.044723512144405314 -0.009236963201364874 0.044723512144405314 -0.04784034668700969" pretrained=T config_weight=1.0 pbc="T T T"
Al       1.81466000       2.64255000       1.72629000       0.08952754      -0.77972335       2.00131034
Al       0.67863312       6.40544382       1.74955000      -0.43240935       0.07593644      -0.64602822
O        1.97763389       3.05261315       0.05785377       0.34288181       0.70378691      -1.35528212
12
Lattice="3.005076 0.0 0.0 0.0 4.157061 0.0 0.0 0.0 10.612694" Properties=species:S:1:pos:R:3:REF_forces:R:3 head=omat_pbe REF_energy=-77.86720067554307 REF_stress="-0.00988459705112509 2.945585267599205e-17 1.044235317447624e-17 2.945585267599205e-17 -0.007165804472887703 -6.332980020574614e-17 1.044235317447624e-17 -6.332980020574614e-17 -0.008688014369722876" pretrained=T config_weight=1.0 pbc="T T T"
Al       0.75126900       2.66169549       7.02470135       0.00000000      -0.09337006       0.03871953
Al       0.75126900       3.57389601       1.71835435       0.00000000       0.09337006       0.03871953
Al       2.25380700       1.49536551       3.58799265      -0.00000000       0.09337006      -0.03871953
Al       2.25380700       0.58316499       8.89433965       0.00000000      -0.09337006      -0.03871953
O        2.25380700       3.50618996      10.19599718       0.00000000       0.01619288      -0.08406381
O        2.25380700       2.72940154       4.88965018      -0.00000000      -0.01619288      -0.08406381
O        0.75126900       0.65087104       0.41669682      -0.00000000      -0.01619288       0.08406381
O        0.75126900       1.42765946       5.72304382       0.00000000       0.01619288       0.08406381
O        2.25380700       2.70060558       2.15420708      -0.00000000       0.04781148       0.09555218
O        2.25380700       3.53498592       7.46055408      -0.00000000      -0.04781148       0.09555218
O        0.75126900       1.45645542       8.45848692       0.00000000      -0.04781148      -0.09555218
O        0.75126900       0.62207508       3.15213992       0.00000000       0.04781148      -0.09555218
6
Lattice="0.0 0.0 4.43089706 4.58458227 0.0 0.0 -2.29229164 4.83323962 0.0" Properties=species:S:1:pos:R:3:REF_forces:R:3 head=omat_pbe REF_energy=-16.068442374106397 REF_stress="0.002205715755340211 -2.5257417561244176e-08 1.466873022117533e-17 -2.5257417561244176e-08 0.0051406661775056355 1.6213548567509717e-17 1.466873022117533e-17 1.6213548567509717e-17 0.0007677866134971663" pretrained=T config_weight=1.0 pbc="T T T"
Li       2.29229087       2.49982403       1.10772427      -0.00000005      -0.00179704      -0.00000000
Li      -0.00000024       2.33341559       3.32317280       0.00000005       0.00179704       0.00000000
Li      -0.00000044       3.96459235       1.10772427       0.00000002      -0.01355846      -0.00000000
Li       2.29229107       0.86864727       3.32317280      -0.00000002       0.01355846       0.00000000
Al      -0.00000005       0.72481238       1.10772427      -0.00000002       0.16783299      -0.00000000
Al       2.29229068       4.10842724       3.32317280       0.00000002      -0.16783299       0.00000000
3
Lattice="2.8334771254843405 0.0 0.0 0.0757016767218607 6.004254324970216 0.0 -1.262375257608688 3.0167597080133723 2.815796164424307" Properties=species:S:1:pos:R:3:REF_forces:R:3 head=omat_pbe REF_energy=-15.262055771297831 REF_stress="0.02900107369857036 -0.00237101738208548 -0.00200035171571261 -0.00237101738208548 -0.021033532443376742 -0.002176067902794294 -0.00200035171571261 -0.002176067902794294 0.04922314799976308" pretrained=T config_weight=1.0 pbc="T T T"
Al       1.55473000       3.25584000       1.82413000       0.10785442      -0.16429063      -0.01505778
Al       1.78679000       6.26876000       1.58151000      -0.08507716      -0.34365278       1.30835643
O        1.62484426       3.02268029       0.03321384      -0.02277726       0.50794341      -1.29329865
3
Lattice="2.640669464341318 0.0 0.0 -1.0779397145446328 5.739544319141 0.0 0.239332637185584 0.0615135193735972 2.7831386739034207" Properties=species:S:1:pos:R:3:REF_forces:R:3 head=omat_pbe REF_energy=-15.202085602816656 REF_stress="-0.06598147664820235 0.04534152903656985 -0.02108152012264193 0.04534152903656985 0.08531850358727729 -0.03712601826910124 -0.02108152012264193 -0.03712601826910124 -0.03552078525326848" pretrained=T config_weight=1.0 pbc="T T T"
Al       1.57786000       1.41157000       0.61183100       0.45753611       1.05192144       0.07480315
Al       1.24313029       4.72860432       2.63309000      -0.38872976      -1.44795077       0.15649420
O       -0.37671946       3.46529000       0.32058900      -0.06880635       0.39602933      -0.23129735
2
Lattice="2.633716065350759 0.0 0.0 -0.161034238877433 2.636084145106225 0.0 1.446174627399794 1.577850374071579 8.771027721126428" Properties=species:S:1:pos:R:3:REF_forces:R:3 head=omat_pbe REF_energy=-11.566522545326333 REF_stress="-0.024131198358900957 -0.01027570340096973 -5.510169558737572e-05 -0.01027570340096973 -0.023517413854943423 -0.000990809239664651 -5.510169558737572e-05 -0.000990809239664651 -0.011676181821194016" pretrained=T config_weight=1.0 pbc="T T T"
Al       3.09167463       3.63931037       7.15773772      -0.00818928      -0.14725532      -1.73532887
O        1.87303856       2.29224737       7.56746772       0.00818928       0.14725532       1.73532887
9
Lattice="3.5577335303849305 0.0 0.0 -0.8603831742538336 3.1738473512596483 0.0 0.0561101905401949 -1.6628562935751312 32.709930558533905" Properties=species:S:1:pos:R:3:REF_forces:R:3 head=omat_pbe REF_energy=-43.45412167885653 REF_stress="0.0047378085564694725 -0.0016873192199009257 0.0002498057797565024 -0.0016873192199009257 -0.000133774253049418 -0.0024813385200305087 0.0002498057797565024 -0.0024813385200305087 0.008834948419108809" pretrained=T config_weight=1.0 pbc="T T T"
Li       0.41626983      -1.44133364      30.40000056      -0.03484910      -0.17482354      -0.00316305
O        1.30796000       0.37647700       3.92678000       0.65154632      -0.45924559       0.87243027
O        1.97392317      -0.06789735       4.88779000      -0.65167403       0.45923411      -0.87345642
O        2.19734019      -0.23121629      30.05846056      -0.64508313       0.62255952       0.55978384
O        1.25319019       0.30242371      30.91223056       0.73194330      -0.48528347      -0.41146011
O        0.07661389       1.37662371      27.18589056       0.52883000      -1.29005262       0.26821416
O        2.70203317      -0.43999735      10.13190000      -0.10482964      -0.18525051       1.78591906
O        0.67320219       0.46066371      27.80715056      -0.58084158       1.32761045      -0.41341485
O        2.63014317      -0.56710735      11.38610000       0.10495786       0.18525166      -1.78485289
2
Lattice="5.35927398359328 0.0 0.0 0.6904034187024489 3.259353562163814 0.0 -2.8537478419769013 1.6158302635672939 2.3904458195835305" Properties=species:S:1:pos:R:3:REF_forces:R:3 head=omat_pbe REF_energy=-5.906232503908372 REF_stress="-0.010542470350983976 -0.007881754241925956 -0.0035156568550712645 -0.007881754241925956 -0.042672160281225176 0.0020218769495229036 -0.0035156568550712645 0.0020218769495229036 -0.007400277229668649" pretrained=T config_weight=1.0 pbc="T T T"
Cl       3.34104000       0.99553400       0.49162900       0.10431172      -0.04354991      -0.04762292
O        3.11378000       3.22072000       1.23276000      -0.10431172       0.04354991       0.04762292
2
Lattice="3.189064886277745 0.0 0.0 0.6475482880839996 3.6534286536572402 0.0 -0.681688664685912 -1.2617774370213166 3.19011931058005" Properties=species:S:1:pos:R:3:REF_forces:R:3 head=omat_pbe REF_energy=-5.8414112443734885 REF_stress="-0.015194822227362584 -0.010418479641673492 0.0008546529658807229 -0.010418479641673492 -0.07535647646642053 0.0008342812974773758 0.0008546529658807229 0.0008342812974773758 -0.018003778269210353" pretrained=T config_weight=1.0 pbc="T T T"
Cl       2.82238000       1.13386000       0.36420600      -0.17908768      -0.27799007       0.56012994
O        3.20411829       3.25958365       0.62912200       0.17908768       0.27799007      -0.56012994
4
Lattice="4.1157948278663214 0.0 0.0 0.1556605290962016 4.95132263911089 0.0 0.7140919893106763 -0.433394699530097 8.147937693970395" Properties=species:S:1:pos:R:3:REF_forces:R:3 head=omat_pbe REF_energy=-7.136483193331521 REF_stress="0.0012181919471871013 0.006451034746065257 0.0038356965693341675 0.006451034746065257 0.01593810778129247 -0.0035959015880647704 0.0038356965693341675 -0.0035959015880647704 0.010644621304341965" pretrained=T config_weight=1.0 pbc="T T T"
Cl       1.60714000       2.38010000       0.83700300      -0.64673574      -0.76484889      -0.64904235
Cl       1.31057000       0.58965700       7.80170000       0.64862954       0.76552355       0.63430779
Cl       3.45589000       3.15396000       4.74783000       0.10177286       1.20740660      -0.88696203
Cl       3.44477000      -0.10918200       3.51619000      -0.10366666      -1.20808126       0.90169658
9
Lattice="4.194941 -0.165605 1.555232 1.359439 5.023829 1.859709 -0.021855 0.020257 5.526295" Properties=species:S:1:pos:R:3:REF_forces:R:3 head=omat_pbe REF_energy=-43.86868198601306 REF_stress="-0.004033590087042229 0.0023098816644083445 -0.0005223027730614797 0.0023098816644083445 0.005608179380042738 0.0005167282504821022 -0.0005223027730614797 0.0005167282504821022 0.007859880425386174" pretrained=T config_weight=1.0 pbc="T T T"
Li       3.60293707       4.77954919       5.81545939      -0.02829811       0.03771674       0.01376226
O        3.87838292       1.18161369       6.22540205      -0.07554479      -0.04128122      -0.04609784
O        0.90785632       1.14149349       4.73135653       0.18301853      -0.06420204       0.06840765
O        1.73118168       3.64524984       2.96021362       0.21885341      -0.00774770       0.05351121
O        4.68889405       3.63845145       4.48732765      -0.18668850       0.19874788       0.04461712
O        3.76110750       0.81772691       2.90987790      -0.32269160      -0.04958301      -0.06695532
O        1.77134433       4.07880356       5.82368924       0.10355182       0.08348921      -0.01069198
O        0.76959788       0.66018453       1.37626968       0.17796827      -0.18918789      -0.01805889
O        4.76372484       4.33071417       7.42531823      -0.07016902       0.03204803      -0.03849421
2
Lattice="4.591802381206184 0.0 0.0 -2.2636511814511 2.6390418136681415 0.0 -2.057334234865416 -0.2200346881131315 1.7118920798375492" Properties=species:S:1:pos:R:3:REF_forces:R:3 head=omat_pbe REF_energy=-8.789363490944812 REF_stress="0.0035818900726232246 -0.005862176638876572 0.015352409107714573 -0.005862176638876572 -0.002966084544029088 0.0011247307094163514 0.015352409107714573 0.0011247307094163514 0.01616742336236054" pretrained=T config_weight=1.0 pbc="T T T"
Li       3.11423000       0.24368800       0.71371600       0.06073211      -0.38106381       0.02423732
O       -2.63919000       1.49303000       1.62326000      -0.06073211       0.38106381      -0.02423732
20
Lattice="9.417427 5.537127 3.695114 -3.595016 3.019789 3.087241 -3.97422 -8.009744 4.134408" Properties=species:S:1:pos:R:3:REF_forces:R:3 head=omat_pbe REF_energy=-86.22133814094614 REF_stress="-0.0045227797253131665 -0.002174835613932473 -0.0015909604073069377 -0.002174835613932473 -0.002492358401139724 -0.0001986305411256922 -0.0015909604073069377 -0.0001986305411256922 -0.001939575337873375" pretrained=T config_weight=1.0 pbc="T T T"
Al      -1.79750800       1.50989450       1.54362050      -0.00000000      -0.00000000       0.00000000
Al       0.00000000       0.00000000       0.00000000       0.00000000      -0.00000000      -0.00000000
Cl       1.20055542       3.68210251       5.46035699      -0.05357671      -0.01794706      -0.01082895
Cl      -0.69729859      -0.68259326       2.41253165       0.00999726      -0.07132351       0.08140804
Cl       3.15241498       4.04369279       5.53751104       0.05334645       0.01960166       0.00894107
Cl       0.64763558      -3.13493051       5.45640601       0.05357671       0.01794706       0.01082895
Cl       2.54548959       1.22976526       8.50423135      -0.00999726       0.07132351      -0.08140804
Cl      -1.30422398      -3.49652079       5.37925196      -0.05334645      -0.01960166      -0.00894107
O        0.17300216      -0.93442067       7.85532290      -0.03253445       0.02567653      -0.02631273
O        3.67913280      -1.99259313       7.86714587      -0.08741926       0.04655117      -0.22821590
O        6.53522485       3.52198860       5.55980000      -0.03234439      -0.01935234      -0.06033906
O        1.67518884       1.48159267       3.06144010       0.03253445      -0.02567653       0.02631273
O       -1.83094180       2.53976513       3.04961713       0.08741926      -0.04655117       0.22821590
O       -4.68703385      -2.97481660       5.35696300       0.03234439       0.01935234       0.06033906
O        5.93843272       6.93771655       5.94898248      -0.04888571      -0.22841016       0.08561319
O        0.31217056       0.24262934       7.56214659      -0.02582079      -0.06589354      -0.00721457
O        6.21596747       3.63001316       4.38627028      -0.02526236      -0.02622795       0.03292981
O       -4.09024172      -6.39054455       4.96778052       0.04888571       0.22841016      -0.08561319
O        1.53602044       0.30454266       3.35461641       0.02582079       0.06589354       0.00721457
O       -4.36777647      -3.08284116       6.53049272       0.02526236       0.02622795      -0.03292981
2
Lattice="5.340443544183523 0.0 0.0 0.7971488800831875 3.5900047504414827 0.0 -2.8423266010738546 1.3522626603588945 2.575800243161858" Properties=species:S:1:pos:R:3:REF_forces:R:3 head=omat_pbe REF_energy=-5.842653537951874 REF_stress="-0.0215627389000134 -0.037860264210438296 0.007670916831198854 -0.037860264210438296 -0.09959175645998931 0.015942777948314012 0.007670916831198854 0.015942777948314012 -0.009545544735883071" pretrained=T config_weight=1.0 pbc="T T T"
Cl       3.28533000       0.91556600       0.53762600       1.40134988       1.95195032      -0.88448751
O        3.38219000       3.23045000       0.92547600      -1.40134988      -1.95195032       0.88448751
8
Lattice="5.487008693368953 0.0 0.0 -0.5091985889983924 3.5251690599121224 0.0 -1.1863817810943127 0.2608239401202735 4.862086573380839" Properties=species:S:1:pos:R:3:REF_forces:R:3 head=omat_pbe REF_energy=-45.15920350392813 REF_stress="-0.036899556813795246 0.017958520706741303 0.07863681884488906 0.017958520706741303 0.02046710349565871 -0.04240933422630584 0.07863681884488906 -0.04240933422630584 -0.0831028563122794" pretrained=T config_weight=1.0 pbc="T T T"
Al       2.89794000       0.86901900       0.05575870      -0.56217251      -0.63157019       1.33714924
Al       4.08429859       0.28671094       3.50704000       0.09270764       0.05197594      -1.30910353
O        0.03864159       0.67144094       4.47614000       1.19608838       0.43804386       0.33490377
O        2.19124000       2.98227000       4.30960000      -0.75221822       0.21753339       1.03385888
O        4.28500000       2.17004000       3.15484000      -4.22969447      -2.61280961       0.59147971
O        3.34561000       0.49675100       1.81967000      -0.20225930       0.38522105      -1.36753951
O       -0.14817700       2.45009000       2.15426000       4.48096540       5.57637188       7.24066213
O        0.23709100       2.28892000       1.07060000      -0.02341692      -3.42476634      -7.86141069
6
Lattice="3.1890170997425873 0.0 0.0 -1.062120106495167 5.232264846957228 0.0 1.4224588282179005 0.6432495321396401 5.353223153503414" Properties=species:S:1:pos:R:3:REF_forces:R:3 head=omat_pbe REF_energy=-39.74759918285638 REF_stress="0.016680446714774737 0.0015479652052702488 -0.009004666476844246 0.0015479652052702488 0.01697922228885834 -0.016929422646960533 -0.009004666476844246 -0.016929422646960533 0.024966097325624926" pretrained=T config_weight=1.0 pbc="T T T"
Al       3.97634883       2.37230953       5.33414095      -0.17187991      -0.61549256      -0.57846538
Al       0.96203300       2.62478000       1.97578000      -0.05947513       0.25891709      -0.27805131
O        2.56528000       3.07832000       1.16817000      -0.43839209       0.79109759       1.92751584
O        0.94635500       1.24207000       0.69389500       0.38194966      -0.25586197      -0.62654696
O        0.74433300       1.69081000       3.56458000      -0.03156097       1.87818036       0.14117057
O        0.65755200       3.36048000       3.73896000       0.31935843      -2.05684052      -0.58562276
2
Lattice="3.896779771360868 0.0 0.0 -1.2165771322344552 3.535605177367969 0.0 -1.9497070260578497 0.6055987088356247 3.461073680720303" Properties=species:S:1:pos:R:3:REF_forces:R:3 head=omat_pbe REF_energy=-6.000240115307193 REF_stress="0.004664812880396534 0.021615607804026025 -0.005488045761676347 0.021615607804026025 0.03879876833508942 -0.013779949309670214 -0.005488045761676347 -0.013779949309670214 0.0026554782431902047" pretrained=T config_weight=1.0 pbc="T T T"
Cl       2.21460364       3.49615568       0.48068700       0.64518831       1.55486765      -0.40193790
O        0.10179900       1.44360000       0.07080850      -0.64518831      -1.55486765       0.40193790
8
Lattice="13.46891423783227 0.0 0.0 -0.0239030570643473 4.799803124194896 0.0 -1.9259680993291879 0.559000774196608 2.1617896044349187" Properties=species:S:1:pos:R:3:REF_forces:R:3 head=omat_pbe REF_energy=-48.00231532422892 REF_stress="0.022002161278505593 -0.009912784762162003 -0.0001161984362475309 -0.009912784762162003 -0.0012899445250959297 0.013080227113149935 -0.0001161984362475309 0.013080227113149935 0.013945580364109634" pretrained=T config_weight=1.0 pbc="T T T"
Al       0.31751810       1.86271923       0.91021040      -0.21264012      -0.74117386       0.82642664
Al      11.76013234       4.34436923       0.64819040      -2.21546249      -0.30852372      -0.48719766
O       12.02090424       2.64537000       1.17284000       0.50791622      -0.39523309       0.98813539
O       -0.17391506       4.93299712       1.22702000       0.53656929       1.24107668      -0.08507607
O        2.16679010       1.56814923       0.73529040      -0.19175393       0.16843903      -0.92265374
O        6.16860000       3.63694000       2.04713000      -1.26185013      -1.32220888      -0.95340487
O        5.40045000       2.83624000       1.47005000       1.13046389       1.24352875       0.85128337
O       10.04004118       4.79430258       1.08281000       1.70675727       0.11409509      -0.21751307
3
Lattice="3.0224040031321695 0.0 0.0 -0.2105305706206196 3.6341404493108884 0.0 0.0464316829754306 0.0134309213724411 4.189117348895071" Properties=species:S:1:pos:R:3:REF_forces:R:3 head=omat_pbe REF_energy=-14.040212810823867 REF_stress="0.009119324479388883 0.004571258686264173 -0.002923430948851124 0.004571258686264173 0.020727682854420473 -0.009898970644663383 -0.002923430948851124 -0.009898970644663383 -0.0013699293840765767" pretrained=T config_weight=1.0 pbc="T T T"
Li       0.08308600       2.04368000       2.34879000      -0.16194401       0.14534540       0.32231999
O        1.50788000       0.95173700       3.22246000       0.14511694       0.66150488       0.23635267
O        1.50831943       3.64105627       2.29440000       0.01682707      -0.80685028      -0.55867266
3
Lattice="2.822109909239864 0.0 0.0 -1.9142797416266548 6.3981720808770195 0.0 -0.165559561545221 2.0486514562511844 2.187009100508987" Properties=species:S:1:pos:R:3:REF_forces:R:3 head=omat_pbe REF_energy=-15.565827824377777 REF_stress="-0.028260029816010078 -0.013166479053507103 0.006179772071849691 -0.013166479053507103 -0.042611334867352565 0.043839722586972635 0.006179772071849691 0.043839722586972635 -0.036583348858172625" pretrained=T config_weight=1.0 pbc="T T T"
Al       0.22247400       2.41049000       1.48250000      -0.73204356      -2.17956324       2.07448395
Al      -0.20930974       6.34193968       1.76736000      -0.29634278       0.66390365      -0.84528262
O        1.56943000       3.11064000       0.61031000       1.02838633       1.51565959      -1.22920133
4
Lattice="5.3122831134194515 0.0 0.0 0.5580705300648228 5.279362322273218 0.0 0.3589267629728368 0.049823744185333 8.885765420498917" Properties=species:S:1:pos:R:3:REF_forces:R:3 head=omat_pbe REF_energy=-14.205249330825946 REF_stress="0.0033474834980394175 0.0018552612161184224 0.0027791832221244254 0.0018552612161184224 -0.0003794597700574492 0.0010388044703577013 0.0027791832221244254 0.0010388044703577013 -0.0025100364978807685" pretrained=T config_weight=1.0 pbc="T T T"
Al       4.51668000       0.64119500       4.91062000      -1.27571277      -0.32196210      -0.73521111
Cl       5.39163964       4.31595532       6.18419000       0.34411931      -0.07398759       0.33717242
Cl       4.90058111       0.60322500       2.86697000       0.56197038       0.08921785      -0.07890445
Cl       2.46617000       1.31040000       4.95544000       0.36962309       0.30673185       0.47694313
2
Lattice="2.7291979612959287 0.0 0.0 0.228166396480225 2.553424524163532 0.0 -1.6175892326435057 0.3583004692121646 2.575780393985613" Properties=species:S:1:pos:R:3:REF_forces:R:3 head=omat_pbe REF_energy=-8.88966050044561 REF_stress="0.00035059874628423225 -0.0005158006232503004 -0.009993337319518762 -0.0005158006232503004 0.016210987657358327 0.010576918030229313 -0.009993337319518762 0.010576918030229313 0.016640696899979705" pretrained=T config_weight=1.0 pbc="T T T"
Li      -0.06395200       1.37146000       1.48326000      -0.02127781       0.34335253      -0.21846761
O       -1.43621000       0.38394500       2.46403000       0.02127781      -0.34335253       0.21846761
30
Lattice="3.089485 0.0 0.0 0.0 7.37555 0.015676 0.0 0.040858 15.215919" Properties=species:S:1:pos:R:3:REF_forces:R:3 head=omat_pbe REF_energy=-221.4191582911485 REF_stress="0.0017789196565963 6.350922554170709e-18 -2.1327460638321088e-17 6.350922554170709e-18 -0.001275069767153276 0.00163874737765495 -2.1327460638321088e-17 0.00163874737765495 -0.0023586566738981866" pretrained=T config_weight=1.0 pbc="T T T"
Al       0.00000000       0.06830296      15.11454859       0.00000000      -0.05341486      -0.07363095
Al       0.00000000       7.38280928       7.66867680       0.00000000      -0.05400970      -0.00037442
Al       1.54474250       1.74882138       1.39531131      -0.00000000       0.08287780       0.10074770